# vtk DataFile Version 2.0
Unstructured grid legacy vtk file with point scalar data
ASCII

DATASET UNSTRUCTURED_GRID
POINTS 5 double
0.0 0.000271266 0.0
0.0001851 6.334399999999998e-05 0.0
0.000278366 -0.00019897700000000003 0.0
-0.0001851 6.334399999999998e-05 0.0
-0.000278366 -0.00019897700000000003 0.0

POINT_DATA 5
SCALARS radii double
LOOKUP_TABLE default
0.000139183
0.000139183
0.000139183
0.000139183
0.000139183
