# vtk DataFile Version 2.0
Unstructured grid legacy vtk file with point scalar data
ASCII

DATASET UNSTRUCTURED_GRID
POINTS 5 double
0.0 0.00018747120000000002 0.0
0.000249556 6.411920000000003e-05 0.0
0.00041755 -0.0001578548 0.0
-0.000249556 6.411920000000003e-05 0.0
-0.00041755 -0.0001578548 0.0

POINT_DATA 5
SCALARS radii double
LOOKUP_TABLE default
0.000139183
0.000139183
0.000139183
0.000139183
0.000139183
