# vtk DataFile Version 2.0
Unstructured grid legacy vtk file with point scalar data
ASCII

DATASET UNSTRUCTURED_GRID
POINTS 3 double
0.0 0.0 0.0
0.00033003996659090233 0.0 0.0
-0.00033003996659090233 0.0 0.0

POINT_DATA 3
SCALARS radii double
LOOKUP_TABLE default
0.00016501998329545117
0.00016501998329545117
0.00016501998329545117
