# vtk DataFile Version 2.0
Unstructured grid legacy vtk file with point scalar data
ASCII

DATASET UNSTRUCTURED_GRID
POINTS 5 double
0.0 0.00029931360000000004 0.0
0.000142969 6.042960000000004e-05 0.0
0.000208775 -0.00021008639999999998 0.0
-0.000142969 6.042960000000004e-05 0.0
-0.000208775 -0.00021008639999999998 0.0

POINT_DATA 5
SCALARS radii double
LOOKUP_TABLE default
0.000139183
0.000139183
0.000139183
0.000139183
0.000139183
