# vtk DataFile Version 2.0
Unstructured grid legacy vtk file with point scalar data
ASCII

DATASET UNSTRUCTURED_GRID
POINTS 5 double
0.0 0.0002341596 0.0
0.000221413 6.54436e-05 0.0
0.000347958 -0.0001825234 0.0
-0.000221413 6.54436e-05 0.0
-0.000347958 -0.0001825234 0.0

POINT_DATA 5
SCALARS radii double
LOOKUP_TABLE default
0.000139183
0.000139183
0.000139183
0.000139183
0.000139183
