# vtk DataFile Version 2.0
Unstructured grid legacy vtk file with point scalar data
ASCII

DATASET UNSTRUCTURED_GRID
POINTS 5 double
0.0 0.00031885679999999996 0.0
9.70942e-05 5.791679999999998e-05 0.0
0.000139183 -0.0002173452 0.0
-9.70942e-05 5.791679999999998e-05 0.0
-0.000139183 -0.0002173452 0.0

POINT_DATA 5
SCALARS radii double
LOOKUP_TABLE default
0.000139183
0.000139183
0.000139183
0.000139183
0.000139183
