# vtk DataFile Version 2.0
Unstructured grid legacy vtk file with point scalar data
ASCII

DATASET UNSTRUCTURED_GRID
POINTS 5 double
0.0 0.00012852875999999999 0.0
0.000268164 5.380185999999999e-05 0.0
0.000487141 -0.00011806624000000002 0.0
-0.000268164 5.380185999999999e-05 0.0
-0.000487141 -0.00011806624000000002 0.0

POINT_DATA 5
SCALARS radii double
LOOKUP_TABLE default
0.000139183
0.000139183
0.000139183
0.000139183
0.000139183
