# vtk DataFile Version 2.0
Unstructured grid legacy vtk file with point scalar data
ASCII

DATASET UNSTRUCTURED_GRID
POINTS 5 double
-0.000539335 -6.146848e-05 0.0
-0.00027646 3.0100719999999996e-05 0.0
0.0 6.273552e-05 0.0
0.00027646 3.0100719999999996e-05 0.0
0.000539335 -6.146848e-05 0.0

POINT_DATA 5
SCALARS radii double
LOOKUP_TABLE default
0.000139183
0.000139183
0.000139183
0.000139183
0.000139183
