# vtk DataFile Version 2.0
Unstructured grid legacy vtk file with point scalar data
ASCII

DATASET UNSTRUCTURED_GRID
POINTS 5 double
-0.0002783676 0.0 0.0
0.0 0.0 0.0
0.00027836539999999996 0.0 0.0

POINT_DATA 5
SCALARS radii double
LOOKUP_TABLE default
0.000139183
0.000139183
0.000139183
