# vtk DataFile Version 2.0
Unstructured grid legacy vtk file with point scalar data
ASCII

DATASET UNSTRUCTURED_GRID
POINTS 5 double
-0.000521937 -8.577328e-05 0.0
-0.000274149 4.107241999999999e-05 0.0
0.0 8.940171999999999e-05 0.0
0.000274149 4.107241999999999e-05 0.0
0.000521937 -8.577328e-05 0.0

POINT_DATA 5
SCALARS radii double
LOOKUP_TABLE default
0.000139183
0.000139183
0.000139183
0.000139183
0.000139183
