# vtk DataFile Version 2.0
Unstructured grid legacy vtk file with point scalar data
ASCII

DATASET UNSTRUCTURED_GRID
POINTS 13 double
0.0 2.812661e-05 4.550982e-05
0.0 -2.812661e-05 4.550982e-05
2.812661e-05 4.550982e-05 0.0
-2.812661e-05 4.550982e-05 0.0
4.550982e-05 0.0 2.812661e-05
-4.550982e-05 0.0 2.812661e-05
0.0 -2.812661e-05 -4.550982e-05
0.0 2.812661e-05 -4.550982e-05
-2.812661e-05 -4.550982e-05 0.0
2.812661e-05 -4.550982e-05 0.0
-4.550982e-05 0.0 -2.812661e-05
4.550982e-05 0.0 -2.812661e-05
0.0 0.0 0.0

POINT_DATA 13
SCALARS radii double
LOOKUP_TABLE default
8.560000000000001e-05
8.560000000000001e-05
8.560000000000001e-05
8.560000000000001e-05
8.560000000000001e-05
8.560000000000001e-05
8.560000000000001e-05
8.560000000000001e-05
8.560000000000001e-05
8.560000000000001e-05
8.560000000000001e-05
8.560000000000001e-05
5.35e-05
