# vtk DataFile Version 2.0
Unstructured grid legacy vtk file with point scalar data
ASCII

DATASET UNSTRUCTURED_GRID
POINTS 1 double
0.0 0.0 0.0

POINT_DATA 1
SCALARS radii double
LOOKUP_TABLE default
5.35e-05
