# vtk DataFile Version 2.0
Unstructured grid legacy vtk file with point scalar data
ASCII

DATASET UNSTRUCTURED_GRID
POINTS 2 double
0.0 0.0 0.0
1e-08 0.0 0.0

POINT_DATA 2
SCALARS radii double
LOOKUP_TABLE default
5.35e-05
1.35e-08
